/*--------------------------------*- C++ -*----------------------------------*\
| =========                 |                                                 |
| \\      /  F ield         | OpenFOAM: The Open Source CFD Toolbox           |
|  \\    /   O peration     | Version:  2.3.0                                 |
|   \\  /    A nd           | Web:      www.OpenFOAM.org                      |
|    \\/     M anipulation  |                                                 |
\*---------------------------------------------------------------------------*/
FoamFile
{
    version     2.0;
    format      ascii;
    class       volVectorField;
    location    "5000";
    object      U;
}
// * * * * * * * * * * * * * * * * * * * * * * * * * * * * * * * * * * * * * //

dimensions      [0 1 -1 0 0 0 0];

internalField   nonuniform List<vector> 
100
(
(0.00120557 0 0)
(0.00373322 0 0)
(0.00650711 0 0)
(0.00955078 0 0)
(0.0128897 0 0)
(0.0165512 0 0)
(0.0205639 0 0)
(0.0249567 0 0)
(0.0297553 0 0)
(0.0349741 0 0)
(0.0405962 0 0)
(0.0465348 0 0)
(0.0526006 0 0)
(0.058543 0 0)
(0.0641602 0 0)
(0.069355 0 0)
(0.0741116 0 0)
(0.0784564 0 0)
(0.0824332 0 0)
(0.086091 0 0)
(0.089477 0 0)
(0.0926346 0 0)
(0.0956017 0 0)
(0.0984109 0 0)
(0.10109 0 0)
(0.103661 0 0)
(0.106145 0 0)
(0.108557 0 0)
(0.11091 0 0)
(0.113217 0 0)
(0.115486 0 0)
(0.117725 0 0)
(0.119941 0 0)
(0.12214 0 0)
(0.124325 0 0)
(0.126501 0 0)
(0.128669 0 0)
(0.130831 0 0)
(0.132987 0 0)
(0.135135 0 0)
(0.13727 0 0)
(0.139387 0 0)
(0.141474 0 0)
(0.143514 0 0)
(0.14548 0 0)
(0.147332 0 0)
(0.149012 0 0)
(0.150441 0 0)
(0.151516 0 0)
(0.152123 0 0)
(0.152123 0 0)
(0.151516 0 0)
(0.150441 0 0)
(0.149012 0 0)
(0.147332 0 0)
(0.14548 0 0)
(0.143514 0 0)
(0.141474 0 0)
(0.139387 0 0)
(0.13727 0 0)
(0.135135 0 0)
(0.132987 0 0)
(0.130831 0 0)
(0.128669 0 0)
(0.126501 0 0)
(0.124325 0 0)
(0.12214 0 0)
(0.119941 0 0)
(0.117725 0 0)
(0.115486 0 0)
(0.113217 0 0)
(0.11091 0 0)
(0.108557 0 0)
(0.106145 0 0)
(0.103661 0 0)
(0.10109 0 0)
(0.0984109 0 0)
(0.0956017 0 0)
(0.0926346 0 0)
(0.089477 0 0)
(0.086091 0 0)
(0.0824332 0 0)
(0.0784564 0 0)
(0.0741116 0 0)
(0.069355 0 0)
(0.0641602 0 0)
(0.058543 0 0)
(0.0526006 0 0)
(0.0465348 0 0)
(0.0405962 0 0)
(0.0349741 0 0)
(0.0297553 0 0)
(0.0249567 0 0)
(0.0205639 0 0)
(0.0165512 0 0)
(0.0128897 0 0)
(0.00955078 0 0)
(0.00650711 0 0)
(0.00373322 0 0)
(0.00120557 0 0)
)
;

boundaryField
{
    walls
    {
        type            fixedValue;
        value           uniform (0 0 0);
    }
    inlet
    {
        type            cyclic;
    }
    outlet
    {
        type            cyclic;
    }
    sides
    {
        type            empty;
    }
}


// ************************************************************************* //
