/*--------------------------------*- C++ -*----------------------------------*\
| =========                 |                                                 |
| \\      /  F ield         | OpenFOAM: The Open Source CFD Toolbox           |
|  \\    /   O peration     | Version:  2.3.0                                 |
|   \\  /    A nd           | Web:      www.OpenFOAM.org                      |
|    \\/     M anipulation  |                                                 |
\*---------------------------------------------------------------------------*/
FoamFile
{
    version     2.0;
    format      ascii;
    class       volScalarField;
    location    "5000";
    object      epsilon;
}
// * * * * * * * * * * * * * * * * * * * * * * * * * * * * * * * * * * * * * //

dimensions      [0 2 -3 0 0 0 0];

internalField   nonuniform List<scalar> 
100
(
6.70093e-08
2.44875e-07
4.78248e-07
7.83826e-07
1.18488e-06
1.71321e-06
2.41481e-06
3.36676e-06
4.69992e-06
6.56803e-06
9.12717e-06
1.24642e-05
1.63939e-05
2.02744e-05
2.32521e-05
2.4822e-05
2.50124e-05
2.41599e-05
2.26578e-05
2.08302e-05
1.89015e-05
1.70092e-05
1.5228e-05
1.35922e-05
1.21118e-05
1.07833e-05
9.59682e-06
8.53937e-06
7.59748e-06
6.75812e-06
6.00927e-06
5.34011e-06
4.74104e-06
4.20363e-06
3.72049e-06
3.28517e-06
2.89205e-06
2.53626e-06
2.21354e-06
1.92027e-06
1.65335e-06
1.41025e-06
1.189e-06
9.8835e-07
8.07867e-07
6.4824e-07
5.11511e-07
4.01149e-07
3.21688e-07
2.78334e-07
2.78334e-07
3.21688e-07
4.01149e-07
5.11511e-07
6.4824e-07
8.07867e-07
9.8835e-07
1.189e-06
1.41025e-06
1.65335e-06
1.92027e-06
2.21354e-06
2.53626e-06
2.89205e-06
3.28517e-06
3.72049e-06
4.20363e-06
4.74104e-06
5.34011e-06
6.00927e-06
6.75812e-06
7.59748e-06
8.53937e-06
9.59682e-06
1.07833e-05
1.21118e-05
1.35922e-05
1.5228e-05
1.70092e-05
1.89015e-05
2.08302e-05
2.26578e-05
2.41599e-05
2.50124e-05
2.4822e-05
2.32521e-05
2.02744e-05
1.63939e-05
1.24642e-05
9.12717e-06
6.56803e-06
4.69992e-06
3.36676e-06
2.41481e-06
1.71321e-06
1.18488e-06
7.83826e-07
4.78248e-07
2.44875e-07
6.70093e-08
)
;

boundaryField
{
    walls
    {
        type            fixedValue;
        value           uniform 1e-15;
    }
    inlet
    {
        type            cyclic;
    }
    outlet
    {
        type            cyclic;
    }
    sides
    {
        type            empty;
    }
}


// ************************************************************************* //
