/*--------------------------------*- C++ -*----------------------------------*\
| =========                 |                                                 |
| \\      /  F ield         | OpenFOAM: The Open Source CFD Toolbox           |
|  \\    /   O peration     | Version:  2.3.0                                 |
|   \\  /    A nd           | Web:      www.OpenFOAM.org                      |
|    \\/     M anipulation  |                                                 |
\*---------------------------------------------------------------------------*/
FoamFile
{
    version     2.0;
    format      ascii;
    class       volScalarField;
    location    "5000";
    object      k;
}
// * * * * * * * * * * * * * * * * * * * * * * * * * * * * * * * * * * * * * //

dimensions      [0 2 -2 0 0 0 0];

internalField   nonuniform List<scalar> 
100
(
6.96476e-09
1.09579e-07
3.85258e-07
9.24573e-07
1.86242e-06
3.39911e-06
5.83018e-06
9.5859e-06
1.52769e-05
2.37237e-05
3.58668e-05
5.23205e-05
7.24537e-05
9.39038e-05
0.000113774
0.000130235
0.000142809
0.000151834
0.000157951
0.000161815
0.000163988
0.000164907
0.000164901
0.000164203
0.000162982
0.000161353
0.000159394
0.000157158
0.000154674
0.000151962
0.000149026
0.000145864
0.000142469
0.000138825
0.000134915
0.000130718
0.00012621
0.000121365
0.000116158
0.000110565
0.000104565
9.81466e-05
9.13172e-05
8.41138e-05
7.66275e-05
6.90384e-05
6.16622e-05
5.49958e-05
4.97211e-05
4.66436e-05
4.66436e-05
4.97211e-05
5.49958e-05
6.16622e-05
6.90383e-05
7.66275e-05
8.41138e-05
9.13172e-05
9.81466e-05
0.000104565
0.000110565
0.000116158
0.000121365
0.00012621
0.000130718
0.000134915
0.000138825
0.000142469
0.000145864
0.000149026
0.000151962
0.000154674
0.000157158
0.000159394
0.000161353
0.000162982
0.000164203
0.000164901
0.000164907
0.000163988
0.000161815
0.000157951
0.000151834
0.000142809
0.000130235
0.000113774
9.39038e-05
7.24537e-05
5.23205e-05
3.58668e-05
2.37237e-05
1.52769e-05
9.5859e-06
5.83018e-06
3.39911e-06
1.86242e-06
9.24572e-07
3.85258e-07
1.09579e-07
6.96476e-09
)
;

boundaryField
{
    walls
    {
        type            fixedValue;
        value           uniform 1e-15;
    }
    inlet
    {
        type            cyclic;
    }
    outlet
    {
        type            cyclic;
    }
    sides
    {
        type            empty;
    }
}


// ************************************************************************* //
