/*--------------------------------*- C++ -*----------------------------------*\
| =========                 |                                                 |
| \\      /  F ield         | OpenFOAM: The Open Source CFD Toolbox           |
|  \\    /   O peration     | Version:  2.3.0                                 |
|   \\  /    A nd           | Web:      www.OpenFOAM.org                      |
|    \\/     M anipulation  |                                                 |
\*---------------------------------------------------------------------------*/
FoamFile
{
    version     2.0;
    format      ascii;
    class       volScalarField;
    location    "5000";
    object      nut;
}
// * * * * * * * * * * * * * * * * * * * * * * * * * * * * * * * * * * * * * //

dimensions      [0 2 -1 0 0 0 0];

internalField   nonuniform List<scalar> 
100
(
2.17431e-12
1.47331e-10
9.34132e-10
3.30004e-09
8.9687e-09
2.11971e-08
4.64334e-08
9.79746e-08
2.04186e-07
4.3098e-07
9.31052e-07
2.01018e-06
4.09736e-06
7.50799e-06
1.23177e-05
1.85242e-05
2.61541e-05
3.52562e-05
4.58761e-05
5.80394e-05
7.17469e-05
8.69774e-05
0.000103695
0.000121857
0.000141416
0.000162323
0.00018453
0.00020798
0.000232611
0.000258345
0.000285088
0.000312719
0.000341088
0.000370006
0.000399241
0.000428507
0.000457464
0.000485708
0.000512775
0.000538146
0.000561267
0.000581589
0.000598644
0.000612184
0.000622405
0.000630264
0.000637769
0.000647662
0.000661169
0.000673386
0.000673386
0.000661169
0.000647662
0.000637769
0.000630264
0.000622405
0.000612184
0.000598644
0.000581589
0.000561267
0.000538146
0.000512775
0.000485708
0.000457464
0.000428507
0.000399241
0.000370006
0.000341088
0.000312719
0.000285088
0.000258345
0.000232611
0.00020798
0.00018453
0.000162323
0.000141416
0.000121857
0.000103695
8.69774e-05
7.17469e-05
5.80394e-05
4.58761e-05
3.52562e-05
2.61541e-05
1.85242e-05
1.23177e-05
7.50799e-06
4.09736e-06
2.01018e-06
9.31052e-07
4.3098e-07
2.04186e-07
9.79746e-08
4.64335e-08
2.11971e-08
8.9687e-09
3.30004e-09
9.34132e-10
1.47331e-10
2.17431e-12
)
;

boundaryField
{
    walls
    {
        type            calculated;
        value           uniform 3.00359e-18;
    }
    inlet
    {
        type            cyclic;
    }
    outlet
    {
        type            cyclic;
    }
    sides
    {
        type            empty;
    }
}


// ************************************************************************* //
